LAMMPS dump atom at timestep:     20000376

8000  atoms
   3  atom types

     0.00000000     52.67110581 xlo xhi
     0.00000000     52.67110581 ylo yhi
     0.00000000     52.67110581 zlo zhi

Atoms

   1  1     46.55335687     36.11199487     11.15505549
   2  1     29.26169619     29.82748921     29.06802453
   3  1     51.99454546     17.88394727     39.74182413
   4  1     38.01142029     21.22835180      8.01696367
   5  1     44.44071882     38.99963557     26.77077425
   6  1     14.99093411     37.47622918     20.43048989
   7  1     41.01314661     45.55365928     29.90849737
   8  1     33.73842416      5.99418253     18.82960430
   9  1      8.59244818     40.15692511     41.79710335
  10  1     10.35471803     28.69700926     31.58633544
  11  1      3.40539241     14.23836935     18.52969502
  12  1     49.89602326     29.46163571     22.33676255
  13  1     10.91577065     14.98835323     17.88958308
  14  1     44.62938672     23.93928095     28.22075713
  15  1      2.02165399     17.18521238     18.31790451
  16  1     11.06209099     11.63072824     24.11514977
  17  1      3.44861958     12.04182622     10.71056402
  18  1     20.60793885     44.17209618     46.38818028
  19  1      7.24491060     35.68578028     22.61123169
  20  1     41.81063982     50.47830234      4.09626877
  21  1      2.15019255     47.91622174     12.38755936
  22  1      9.95378558     25.83254385      2.42415078
  23  1     19.05482595     35.51712740      4.59155098
  24  1      8.59487105      0.83055487     24.94946009
  25  1     39.96836255      5.46805085     28.74246443
  26  1     36.92844968     31.54145966     20.29907548
  27  1     48.72725142     35.77184487      3.32627514
  28  1     49.45853706     18.24606112     29.27949902
  29  1     21.36587606     14.56234932     19.35220701
  30  1     37.76534088     48.60242090      7.23901144
  31  1     27.08474672      9.38040792     38.67950059
  32  1     11.48019422      8.69542019     22.77735635
  33  1     13.84354674      6.87115644     33.58731075
  34  1     42.42862991     40.94514821     44.72767100
  35  1     21.25537208     39.17376625      0.94354492
  36  1      7.47629477      5.21445001     10.40201669
  37  1     12.86270541     21.78181978     36.33790124
  38  1     50.74123650      6.42155588     40.38130402
  39  1     29.33511971     49.56819830     49.81864941
  40  1     13.64624078     31.59971391     45.10079312
  41  1     46.73254397     28.90616623     23.04397749
  42  1     40.27712058      3.63369532      9.05895616
  43  1     33.72583576      1.35089799     51.63806741
  44  1     39.05662571     20.90321307      4.09230263
  45  1     14.14324533     37.03126368      1.90000480
  46  1     23.95718912     15.08042232     15.19919566
  47  1      0.11307328     15.14067806     38.48430148
  48  1     12.53208888     28.73203555      0.35085804
  49  1     28.84169679      7.80396172     22.08810226
  50  1     39.28384886     33.45257807     32.07733549
  51  1     39.16123053     34.53107163     22.04269977
  52  1     39.16802510     41.94136951     17.38604730
  53  1     28.26226196     18.91840779     17.77555013
  54  1     47.88372366     20.36333423     11.94949378
  55  1     16.21079692     46.83493660     46.13593836
  56  1     36.54221246     47.19130931     13.94204171
  57  1     22.70735645     47.54731331     22.37184151
  58  1     25.93235559     15.54008306     12.82120058
  59  1     36.74547026     13.43129000     20.44191952
  60  1     40.16440441      9.44566742     52.09904493
  61  1     38.72105810      3.29655284     37.61212063
  62  1     44.00001968      9.29618682     33.81411254
  63  1     29.65209443     35.44933969     49.55160690
  64  1     31.43200910     41.57630607     12.07795860
  65  1     11.54719187     46.18302633      4.27663570
  66  1     48.86245815     23.74434518      5.70006707
  67  1     25.57698364     29.57914494      1.98817623
  68  1     16.21838156     49.71778424     26.22357414
  69  1     40.71918917     26.91203816     11.89397843
  70  1     48.00333974     29.70555560     28.87219336
  71  1     25.23251461     14.69866214     37.79357259
  72  1     12.51813103     24.19689533     10.23626072
  73  1     30.13134882     39.47567703      3.47521323
  74  1      3.67111287     46.81982000     51.01581097
  75  1     44.61632429     47.27579376     25.00508077
  76  1     16.08148936     32.23176718      2.69264174
  77  1      3.48245550      6.61122453      4.86651522
  78  1     13.45446528     44.86113959     36.51029377
  79  1     22.51168330     29.28961188      6.69418152
  80  1     13.12332204     15.68819421      9.82995581
  81  1     18.47586515     38.34646119     24.04404378
  82  1     29.41412637     32.34637950     14.98055790
  83  1      7.36368395     21.91839596     20.19310122
  84  1     46.42199513      8.65154516     23.17281102
  85  1     27.29216553     28.40073429     49.54523370
  86  1     15.60813413     25.43350755     10.18980480
  87  1     26.25233256      3.12611440      8.95103306
  88  1     15.80891638     21.95526573     46.53112967
  89  1     16.83647699     31.04461312      8.05841583
  90  1     35.02970899     18.18875496     28.06274381
  91  1     51.93881943     40.43871553     31.72391237
  92  1     41.89280675     39.82162085     24.55927253
  93  1     30.55334972     23.60013170     20.49627610
  94  1     13.97733135     34.07604595      1.29067385
  95  1     12.52924464     32.01892324     14.87458364
  96  1     18.35967270      1.38987461      7.96771619
  97  1     24.18393823     50.10681303      6.69428686
  98  1     34.24775375     15.36574170     48.85629563
  99  1     32.28491232      1.45587677     15.13498958
 100  1     18.13492509     51.30934704      6.06576256
 101  1     30.45733029     24.15065010     25.86346178
 102  1     37.18643276     50.22442761     48.10826059
 103  1     31.70468742      2.09447179     29.71840735
 104  1      8.96967864     15.67386767     52.55091035
 105  1     49.49277327     15.60160291     31.20457527
 106  1      5.28501876     39.94329111     48.21144328
 107  1     10.76449924     27.18782407      6.61069782
 108  1     22.68260103     18.47923611     26.51073700
 109  1     31.61546257      8.49827224      3.16326333
 110  1     21.33985653     21.56850180     17.49275896
 111  1     14.67996390     43.91126886     24.64080741
 112  1      0.84300632     20.51497435     26.59290393
 113  1     42.81423507     38.57584386     13.65851315
 114  1     24.66608954      1.74609456     35.97720951
 115  1     30.50220607     15.90920217     29.30009343
 116  1     14.29657092      1.73360098     10.48855531
 117  1     29.98697732     18.08625699     26.29009774
 118  1     45.14229795     23.14916169     13.60673745
 119  1     12.99538392      7.28351853     25.03868494
 120  1     22.06866662     31.10902988     39.39140326
 121  1     10.65325786      7.92299842     51.21343296
 122  1     23.97514997     26.13645613     15.99210649
 123  1     39.15306651     41.79331103     52.29919513
 124  1     12.15759731     13.99228994     36.78902926
 125  1     25.16035519     11.03038298     40.37824910
 126  1     30.05171011     48.73504675     33.73615930
 127  1     49.69608374     41.09805243     38.97756638
 128  1     45.00893471      7.96313380     39.74345693
 129  1     17.62796569     40.92766140     22.28877918
 130  1     16.43428042     30.78952696     43.79739393
 131  1     40.12074006     41.18427503     49.36630995
 132  1     20.20900789      8.91658616      5.06840883
 133  1      4.75851312     13.86034882     47.32377714
 134  1     29.37035668      6.30299322      3.67649059
 135  1     45.36546542     29.97639042      6.78930554
 136  1     14.95922610     51.43981337     39.72333657
 137  1     24.11941613     28.77285566     29.02636169
 138  1      0.34998896     28.95873199     22.44984742
 139  1     29.15145557     25.06201824     34.99463003
 140  1     46.60139292     30.08489290     26.00003796
 141  1     24.45429902     30.73348490      8.43448753
 142  1      5.95668070     30.83024172     19.76883546
 143  1     19.08595457      7.13925237     45.69260566
 144  1     33.97428537     12.78506820     40.24899420
 145  1     23.60834839     32.01391948     22.04096162
 146  1     50.73539000     32.18088689     44.85655720
 147  1      8.04830298     14.27708261      4.82159730
 148  1     14.64130331      8.49195171     21.42434099
 149  1     39.04588081      6.53543081     47.50965347
 150  1     33.72868000     24.52540501     25.90270176
 151  1      3.48230276     34.75381774     39.05989132
 152  1     47.71644023     28.17530196     40.69322231
 153  1     24.07296021     21.20949555     48.56165347
 154  1      3.76252357     30.91045982     30.06593130
 155  1     43.74619762      5.90295617     18.82038686
 156  1     46.12040038     49.70377372     33.12696529
 157  1     48.85023845     46.24396680     22.89012519
 158  1     21.23951808     23.66238894     44.81173409
 159  1     34.52059008     10.87984896     21.16698996
 160  1      8.79481056     27.50364002     45.96944499
 161  1     25.46911322      5.51171520     42.18802829
 162  1     14.16004742     19.06546551      0.65147837
 163  1     13.23503746     32.72861372      4.25100068
 164  1      2.69573880     19.45265081     34.13477423
 165  1      2.06168403      2.98925380     26.32159506
 166  1      9.11789513      1.42519585     21.95400163
 167  1      5.57808079      9.91670512     32.12742571
 168  1     42.88017930     16.65707920      9.46262751
 169  1     49.58036532     12.57211892     45.13971706
 170  1      8.43733177      8.46851306      4.21548455
 171  1     45.82191323     42.41230186      1.68363190
 172  1      9.27401228     48.69543807     22.17959197
 173  1     21.74321186     46.98120427     15.60792344
 174  1     36.19589994     52.65878077     24.40368209
 175  1     37.51752333      3.55207090     34.58179390
 176  1      9.03009239     18.36615124     42.21088755
 177  1      0.27391451     46.64500460     38.43321050
 178  1      5.96574013     39.75741477      1.19301108
 179  1     30.32470445      2.67103078     42.00173059
 180  1     25.58857128     17.52762724     16.24603389
 181  1     12.93665564     31.94781724     52.08577181
 182  1      7.35583595     35.31861000     42.07994718
 183  1     18.96812931     47.96820812     37.39527369
 184  1     10.38279173     17.58414333     22.50014832
 185  1     37.90665746     44.43413493     39.77400617
 186  1     47.88188017     45.72636784     37.70871944
 187  1     11.82345182     31.55583887      9.31983615
 188  1     11.07457404      8.72770758     35.43237959
 189  1     40.95273285     47.85270038     17.23925293
 190  1     45.14245596     24.26805399     25.19206320
 191  1      2.75402464     24.18304283     38.62556538
 192  1     28.35728063     15.21926335     49.16642310
 193  1     42.68466415     41.37631388     21.74157906
 194  1     13.77249342     29.91555530     19.73507328
 195  1     20.83758487      5.27869822     23.55746810
 196  1     27.13246674      9.50571248     12.81377395
 197  1     43.89846978     17.10083327     43.89172788
 198  1      1.38061503     50.72849009     44.75837826
 199  1     40.63538944     32.94182635     29.50113904
 200  1     42.31939003     20.64433458     40.38135669
 201  1     10.64509384      2.61079084     34.16558683
 202  1     43.34231558     34.80032632     15.22553122
 203  1      7.39623469     27.47582968     51.21469707
 204  1      4.46916966     10.01167112     14.05365178
 205  1     41.61222777     42.97488194     24.40052182
 206  1      1.13620003     29.36593231     15.07378576
 207  1     29.21229069      2.57174048     28.07680699
 208  1     12.52308212     49.15504614      4.68210314
 209  1     29.27760286     25.48897022     23.12593373
 210  1     25.63845082     14.26212402     25.51362030
 211  1      7.73248703     37.75959973     17.93524892
 212  1     22.17105925     34.57241845     39.53919838
 213  1      9.14254520      2.17471622     37.18163969
 214  1     22.76466262     24.18225276     27.16169920
 215  1     39.80745232     48.47543087     14.40591614
 216  1     33.66457927     28.96773875     11.90777826
 217  1      5.18234170     21.98965997     50.53371234
 218  1     35.39155948     17.85482015     35.87097189
 219  1     28.18673159     33.16915485     51.19736827
 220  1     27.50058510     15.64042152      9.85950430
 221  1      6.41281247     11.94696556     15.40745721
 222  1     33.74405997     27.08406199     14.67733035
 223  1     26.05481591     38.59675429     37.72088647
 224  1      2.93967449     32.35722975     40.98849653
 225  1     39.36364559     15.73781039     46.17549436
 226  1      0.71934509     43.62847770     39.15475198
 227  1      3.85245422     14.36878301      8.18451046
 228  1     18.08336007      1.89397923     27.81287208
 229  1     51.26489263     51.66677317     35.11303468
 230  1     21.18284397     42.92078872     49.81870208
 231  1      4.75517377     18.87416406     29.45984489
 232  1     13.15144841     22.69824435      7.18591897
 233  1     11.90045698     35.54246220      3.58151405
 234  1     44.62206544      9.06322252     18.62402898
 235  1     11.15684630     17.94425568      0.71044894
 236  1     12.18166801     47.31303223      7.34409030
 237  1     18.20982340      7.19861270     27.35020909
 238  1     23.51101219      5.09563453     13.14381110
 239  1     52.25142244     25.39811257     11.53186458
 240  1      8.89815127     13.16735508     20.55547843
 241  1     30.64120512     16.48847899     17.51535487
 242  1     24.84822622     37.91197724      9.38746585
 243  1     28.97126771     19.74776702     46.74818729
 244  1     29.66536754     18.65378815     10.48449964
 245  1     34.16437539      6.58736452     10.40928530
 246  1     36.49301765      5.95183496     28.33415802
 247  1     33.31410573     49.71925903     21.81020951
 248  1     34.96755708     34.87211704     10.46580140
 249  1     37.55876480      5.31841224      3.59664646
 250  1      0.81812975     36.60768265     24.81399000
 251  1     44.60515801     40.40379458     42.51506319
 252  1     39.46445808      1.54602863     32.75142031
 253  1     39.20052317     18.92304284     45.31279432
 254  1     44.56723481     21.34322748     16.13121088
 255  1     43.80218700     28.27811596     15.66038386
 256  1     45.21271922     15.45570395     48.70096854
 257  1      0.41049858      3.16495408     15.00752551
 258  1     29.68880619     31.04471846     37.53105980
 259  1     28.66071887     49.05059934      9.37408739
 260  1      9.84143811     45.38474305     17.93193065
 261  1      0.35067580      1.06458312     30.95949661
 262  1     28.65929675     34.90213957     28.26652832
 263  1     33.06686756     46.92574159      7.04302226
 264  1     22.31032166     49.86078629     29.51946858
 265  1      6.84060720      7.97856644     11.97651405
 266  1     21.16572586     47.28595928     25.23746569
 267  1      7.45517366     18.59669267     23.47877747
 268  1     38.53360163     42.10212172      4.44081681
 269  1     51.54278538     37.14824621     46.61018900
 270  1     48.67763524     36.25046721     45.89991913
 271  1     32.86555859     26.88291104      6.69481358
 272  1      8.38924305      8.24102656     33.34091532
 273  1     21.39742605      5.96668821     34.76287717
 274  1     51.83827029      7.28420325     23.92132010
 275  1     29.50930306     51.95693829     10.49192626
 276  1      5.22677505     20.59777332     22.89813120
 277  1     12.31060688     23.13720535     21.59383661
 278  1     47.53298677      3.70692922     22.94827409
 279  1     48.97512165     11.76277471     24.77822632
 280  1     46.87228042     40.10941577     28.67941712
 281  1     51.18209365     49.35340553     45.24379517
 282  1     12.54757418     47.99338491     32.13137605
 283  1     20.28232607     38.25381272      3.95753308
 284  1     24.34779804     10.56687725     20.83858562
 285  1     30.30068642      1.53832285     12.69637006
 286  1     37.21908884     50.27862617     13.70675988
 287  1     49.32354101      6.21666528     19.32855769
 288  1     15.91362654     14.78198783     15.85042121
 289  1     29.50487869      5.37245279     46.82266424
 290  1     39.85459296      4.74786302     32.35317407
 291  1     25.28360558     14.75359811     52.37778042
 292  1     11.53191725     10.34107622     45.34992745
 293  1     41.86683989     29.31626346      0.51028663
 294  1     33.43403784      5.70770438     39.79201969
 295  1      1.37753377     11.39807997     44.41217108
 296  1      6.60701084     51.43538900      5.05770607
 297  1     28.70411986     28.86297592      1.52659826
 298  1     23.50053064     43.74351139     44.59578255
 299  1     43.28337661      5.91227896     41.43135519
 300  1     33.60895858     28.13801082     24.22802395
 301  1      8.54983725     32.51102938     28.71286327
 302  1     21.73093949     49.92351758     49.26175780
 303  1     16.55805752     43.73666415     40.63049102
 304  1     15.00768352      2.38498454     27.83088560
 305  1     34.25254682      4.90970553     13.06854409
 306  1     14.10879843     48.48090866      9.78049764
 307  1     46.70852595     26.14040646     47.56048109
 308  1     29.24847574     31.30122675     45.94921929
 309  1     27.62330877     31.22495899      3.74858680
 310  1     34.69645890      8.43443486     32.66519771
 311  1     42.03085771     25.02546449     49.38548223
 312  1     23.18687420     29.43993521     20.09407954
 313  1     12.97768643     34.56899482      9.12742860
 314  1     32.18589064     37.58941939     30.26297391
 315  1     19.26772256     16.77485179      0.54484572
 316  1     12.72955285     34.84530745     16.38987868
 317  1      8.05162126     27.23670286      4.57160443
 318  1     17.17573158     50.40935586     18.26676086
 319  1     13.95889646     15.23053497     33.74690421
 320  1     10.23462791     18.53875446     32.55843337
 321  1     44.45199044     12.52692711     34.04765622
 322  1     51.44471179     10.27386789     23.47782939
 323  1     15.16622355     18.82165096     47.35695993
 324  1     44.00133645      3.88867087     49.63930429
 325  1     10.35029366     39.08438338     18.51763334
 326  1     50.25581958     48.67479100     21.80968280
 327  1     49.16236743      6.24526569     36.23719409
 328  1     47.26404810     12.30660387      0.80746912
 329  1     51.19162712      8.23907773     20.88240798
 330  1     27.55172874     27.15580004      6.20086395
 331  1     16.43549186     28.77174956     49.14372186
 332  1     32.00401731     18.02178755     31.18945866
 333  1      8.22517255     20.70648649     33.94041785
 334  1     44.32215616      0.60701869     14.81617138
 335  1     16.81983292     50.99637533     11.18781691
 336  1      9.61152873     18.93226029     14.72110003
 337  1     28.20005738     21.40932972     49.52026759
 338  1     23.26156183     31.90604906     25.04990388
 339  1      8.77105590     37.89032942     21.00281413
 340  1     44.55001136     41.80963907     24.17556353
 341  1     27.58585962     33.93299122     18.04117052
 342  1     19.10438946     32.95820707      6.88469291
 343  1     38.30569376     45.27260626     42.77578516
 344  1     50.73054426     41.42045227     51.98037693
 345  1     20.94445454     35.40699212      1.83411325
 346  1     32.79966704     10.55792316     47.45139923
 347  1     52.17536536      6.80631831     18.21013943
 348  1     41.55381551     51.23608153      9.42143871
 349  1     42.16158740     46.15948234     12.07348156
 350  1     20.78870608     44.29919156      0.03558328
 351  1      5.54716285     42.81528849     19.92268776
 352  1     27.65043439     44.15097507      7.25907913
 353  1     30.31137866     12.23986958     14.57024999
 354  1     41.44015126     23.97536065     52.48164785
 355  1     24.02992792     19.50263569     43.56458764
 356  1     41.59869129     25.79599010      4.54353600
 357  1      2.62323702     34.90403573     20.44866142
 358  1      3.63293685     14.90144590     27.25461103
 359  1     17.31399323     37.53738034     39.89783594
 360  1     24.55832445     45.78304195     39.32451096
 361  1     14.75027983     47.90958518     48.95953100
 362  1     37.08656834     10.80505599     26.28188105
 363  1     30.42325209     49.29135897     23.27409755
 364  1     31.79496569     13.45815226     17.19901221
 365  1     50.87739130     15.93005993     42.10680945
 366  1      5.17707459     25.16736045     28.57581305
 367  1     25.12748842      2.72000438     14.08225219
 368  1     24.90089733     45.61591653      8.76757960
 369  1     26.80637992     29.49250098     31.16275441
 370  1     42.17833681     50.51891176     15.07836815
 371  1     25.22914366     34.15889759     24.25304272
 372  1     48.48090866      1.74647379     30.41967045
 373  1     40.55712017     38.41651376     11.35531103
 374  1     46.52080613     44.33600866     24.43560078
 375  1     41.75707331     35.73750331     12.54631008
 376  1     14.17310985     42.31612442     38.47060699
 377  1     45.94395218      0.27929117     31.53108345
 378  1     50.30217016      6.73695046     11.03106770
 379  1     10.99693683     15.19192705     30.80996335
 380  1     15.32697576     37.84655973     34.90498381
 381  1     51.79328916     34.23421728     26.11043660
 382  1      9.08018262     28.78491734     13.00365329
 383  1     48.48865131     28.06053162      3.40971671
 384  1     51.82025677     27.67113414      9.55185237
 385  1     30.26692424     19.64842931     28.92065078
 386  1      9.65909074      9.32526127     12.58697217
 387  1     37.42203061     12.40957589     31.51159515
 388  1     26.79047325      2.25600354     41.76729150
 389  1     52.06554611     36.42412384     28.37919181
 390  1      3.17931222     35.06910697      0.34184548
 391  1     16.17866755     26.37858520     27.44628119
 392  1     50.41383290      9.12147676     48.51614563
 393  1     12.34405303     31.79470234     37.72462612
 394  1     10.59600437     44.93835543     41.30473385
 395  1      1.84029683     51.04830904     35.42137133
 396  1     51.93671258     29.90733860     43.16054759
 397  1     13.14186227      0.79663467     42.07831438
 398  1     34.12650486     45.34107870      9.57460629
 399  1      3.68290593     22.37268425     25.37815022
 400  1      3.36114341     37.34418272     22.95512134
 401  1     33.91703188     46.67513247     20.46219790
 402  1     44.95742237     23.44174968     32.16877253
 403  1     44.27659565     24.57575859     34.89708314
 404  1     35.20531445      3.58939892     20.46999322
 405  1      1.87461733     25.91597488     29.08372052
 406  1     22.02052523     21.01097815     14.49414024
 407  1     33.06839502     10.60732866     13.75490127
 408  1     33.85524867     32.70633384     21.03167789
 409  1     38.24643876     29.28434477     22.18280491
 410  1     43.49769534     52.30978203      1.93805441
 411  1      5.01229831      4.72070053     23.55641468
 412  1      8.62373481      7.01731876     18.97708340
 413  1     32.29950222      3.91510650     32.18130826
 414  1     48.01650752      2.56645757     12.99317174
 415  1     22.11475384     34.66338145     23.59597068
 416  1     25.28192011     46.25982080     31.76936754
 417  1     29.87915956     48.68400844     18.20065863
 418  1     15.82150478     20.97700529      7.80243426
 419  1     31.66018034     28.72271276     37.59479184
 420  1     36.99202371     36.30851077     27.29817004
 421  1     11.87949388      2.42087463      8.61288456
 422  1     39.82414907      0.95014988     17.49981689
 423  1     24.81588616     17.87451914     30.98651689
 424  1     27.34425725     36.22982013     30.98541080
 425  1     46.73691568     40.28380981     14.78988850
 426  1     42.74170696     16.74077359      3.83430376
 427  1     14.01483318      3.65511139     34.21220075
 428  1      1.72625862      6.13481438     35.64243196
 429  1     15.23116702     43.55041912      0.52089617
 430  1     18.79410398     32.46757572     50.86380216
 431  1     33.79235937      9.56670562     44.34796500
 432  1     21.63265521      0.77821559     10.63060929
 433  1     24.33931800     40.50081476     39.68356988
 434  1     51.24013721     13.18526326     22.57557335
 435  1     19.61282364      7.53749860      2.36947290
 436  1     30.41187513     26.88754610     20.48463579
 437  1     25.34154380     14.08172548     40.80836135
 438  1     52.12869877     11.02443114     33.08588183
 439  1     50.07210277     47.10619280     16.81535587
 440  1     42.74734277     36.42923294     28.64744575
 441  1     23.14679149     42.18118105     47.29707289
 442  1     26.85278317      7.68692652     30.23300405
 443  1     48.94773267     18.32253957     37.70835074
 444  1     51.66071599     25.28307887      5.87109015
 445  1      9.58708934     52.51751687     41.75470311
 446  1      9.55669811     29.35049967      8.42411132
 447  1     36.96689959     32.15102237     33.72630980
 448  1     47.54362633      6.33680807     41.76276179
 449  1      8.90110086     50.34335896     39.18419513
 450  1      6.01409220      1.77143463     23.26524881
 451  1     49.19928987     21.55264780     37.57967523
 452  1     23.18429332      9.86714161      6.06133819
 453  1     33.42366163     35.47836147      6.23583756
 454  1     52.06307057     36.95352113      8.65833973
 455  1     22.97287150     40.02050695     44.75058293
 456  1     46.44506508     18.78604530     49.11101310
 457  1     32.36328693     34.33134280     38.98989142
 458  1      0.74894099     41.77282197     22.74501629
 459  1     15.49278441      5.11682412     26.41124129
 460  1     27.95071237     12.61810079     39.45302845
 461  1     46.22321438      0.20798661      0.34365210
 462  1     47.47504855     39.47262210     43.19852346
 463  1     20.00432797      5.60694456      5.32183586
 464  1      1.63867184     38.12461049     27.72064498
 465  1     16.03050373     39.25024470     47.06690015
 466  1     15.47213733     50.21542085     36.66404073
 467  1     36.02882719     48.49602527     19.68587847
 468  1      7.51516605      6.99709305     44.83085370
 469  1     27.88998258      7.70167443     42.76267006
 470  1     28.89205037     40.91459897     14.44057373
 471  1     27.16701898     48.79730399     52.15492898
 472  1     23.91405149     30.29742081     51.84448548
 473  1      5.70859979     21.64719244      2.95667146
 474  1     30.31875261     38.59965120     16.19109793
 475  1     42.22990182     28.94740770     42.05677190
 476  1     45.15135738     23.85016144      9.16856473
 477  1     22.82533973     36.96142179     46.47903794
 478  1     12.78870250     42.26645557     51.70706656
 479  1     16.56400936     38.29284201      0.74572278
 480  1     18.28735527     45.24848290      7.45032792
 481  1     29.38552596     26.84972824     27.47956932
 482  1     33.70524136     49.04728106     33.30588904
 483  1     52.14913515     47.20721598     14.01562324
 484  1      3.47049916     36.58134709     36.14965471
 485  1     31.72407039     27.04587544     45.84577324
 486  1     33.82311930     19.16206432     42.14820894
 487  1     35.19620235      8.62141728     51.41874493
 488  1     44.75021424     33.30789054      5.85249725
 489  1     34.02537634     29.48417894     45.15119936
 490  1     16.53324943     35.15380211     49.72278799
 491  1     27.01948722     39.54615097     40.78376394
 492  1     44.93593256      9.69806736     48.01092438
 493  1     27.60360978     21.03810377      9.67157379
 494  1     36.58592948     33.42866538      2.06974797
 495  1     43.69268377     24.64191350     22.44015593
 496  1      6.99356409      9.26679634     17.28749967
 497  1     17.95552730     36.35133237     35.85290570
 498  1     26.42419838      6.44973492     12.69494794
 499  1      3.22849123     42.72743309     24.59824915
 500  1     46.01063380     16.34289605     24.46256838
 501  1     27.35400141     20.68820961     24.95688671
 502  1      4.89435190     42.94775632     49.92630915
 503  1     21.20912685     25.31578763     34.99905440
 504  1     38.92568534     31.56168537      3.70718204
 505  1      9.63802230      4.24396382     20.49754021
 506  1     27.76157043     13.00712958     51.31608894
 507  1     24.03245613     45.60174800      3.31039480
 508  1     11.04044316     43.27184164      9.87751782
 509  1     38.91978618     47.67209116     33.36830430
 510  1     23.04645303     35.74582534     34.85873858
 511  1     31.82530425      0.11164694     46.56294301
 512  1      5.83990886     28.80092936     17.16751489
 513  1     16.19678641      6.52463323     41.55060257
 514  1     31.42126420     11.88091600     19.89498276
 515  1     45.64762454     10.67390494     13.94420122
 516  1      5.39510137     19.73712745     25.89659191
 517  1     25.19058841     48.16303854     29.14529305
 518  1     33.51341319     51.34932441     44.31767912
 519  1      7.59585818     48.87046416      6.82369977
 520  1      6.41639411     20.14885749     12.90405223
 521  1     47.29912706     48.61063759     15.87754683
 522  1     33.47638541     27.73913253     20.92675705
 523  1     11.79669490     11.76904257     17.98523380
 524  1     41.22188220     19.30780527     49.79415734
 525  1      5.42385979      8.59323824      3.45145856
 526  1      5.06889341     49.90903302     14.57693922
 527  1      8.94334308     50.61382509     44.50323942
 528  1     44.26753622     12.46498589     27.92074251
 529  1     33.68506833     27.45133761      3.31369728
 530  1     25.01061124     40.78386928     15.34667476
 531  1     37.26744092     26.45121865     43.09002098
 532  1     23.70605329     34.18702397      3.23797203